9
name="01a-water" energy_eV=-6244.055391497005 dipole_eA="-0.0359604093 -0.1380752759 0.1797702660" polarizability_eA2V="0.3227385458 0.0020991933 -0.0028155892 0.2957791959 0.0264959057 0.2960829413" Properties=species:S:1:pos:R:3:forces:R:3
  O       0.865252     -0.042088     -0.265678 -0.0005193184 0.0002535464 0.0002911819
  H       1.062426      0.646334      0.390026 0.0003299154 -0.0000241876 -0.0002646342
  H       0.171047     -0.581612      0.114265 0.0001261202 -0.0002049449 0.0000422573
  O       3.641554     -0.374563     -0.039211 0.0002056650 -0.0001858636 0.0002651388
  H       2.717910     -0.513838     -0.306347 -0.0000759393 0.0001478180 -0.0001576989
  H       4.133716     -0.249559     -0.851665 -0.0001093931 -0.0001022915 -0.0001059628
  O       2.364332      1.695319      1.361662 0.0001517519 -0.0003965712 0.0003153668
  H       3.059849      1.112122      1.014879 -0.0000899839 0.0002265665 -0.0002774172
  H       2.499825      1.735731      2.308899 -0.0000188180 0.0002859277 -0.0001082318
9
name="01b-water" energy_eV=-6244.055251163505 dipole_eA="-0.2226147983 0.0526293904 -0.0250393538" polarizability_eA2V="0.2693794841 -0.0006220348 -0.0014783973 0.3228048495 -0.0003717606 0.3225404480" Properties=species:S:1:pos:R:3:forces:R:3
  O       0.097970      0.632413      0.716111 0.0005236965 -0.0004778277 -0.0004894382
  H       0.136393      0.641338     -0.254062 0.0003110163 -0.0000162737 -0.0001669402
  H      -0.522726      1.318113      0.964913 -0.0006128253 0.0007578936 0.0004260527
  O      -0.430583     -2.070900      0.186975 0.0000285338 0.0002442970 0.0000429036
  H      -0.302948     -1.236190      0.667495 0.0000386707 -0.0002493395 0.0000394696
  H       0.194571     -2.690203      0.565884 -0.0000933823 0.0000882809 0.0001184896
  O       0.166044     -0.324832     -1.928471 -0.0000686259 -0.0001488326 -0.0000509900
  H      -0.051643     -1.135400     -1.438909 -0.0001290436 -0.0001217958 -0.0000225684
  H      -0.462805     -0.273048     -2.648976 0.0000019594 -0.0000764021 0.0001030215
9
name="01c-water" energy_eV=-6244.055431654317 dipole_eA="-0.0067529124 0.0103628969 -0.2271604247" polarizability_eA2V="0.3222882145 0.0000652530 -0.0017702958 0.3209747562 -0.0111745814 0.2715957139" Properties=species:S:1:pos:R:3:forces:R:3
  O      -1.212439      0.928416      0.061575 -0.0045895044 -0.0023313706 -0.0017096955
  H      -1.857930      1.138714     -0.613933 0.0019040665 0.0011581691 -0.0011360111
  H      -1.112080     -0.037895      0.047353 0.0036271839 0.0012244477 0.0033865205
  O      -0.028084     -1.614922      0.006311 0.0000797891 -0.0018737504 0.0004677871
  H       0.057324     -2.184121      0.772252 0.0001217059 0.0002987989 0.0001142490
  H       0.758836     -1.045184      0.009071 -0.0013588912 0.0003217221 -0.0028664083
  O       1.588558      0.677867      0.032623 -0.0019231024 0.0021121734 -0.0009636107
  H       2.100754      1.051017     -0.685552 0.0008959564 -0.0025637395 -0.0001316038
  H       0.711161      1.090607     -0.017801 0.0012427961 0.0016535492 0.0028387728
12
name="02a-formaldehyde" energy_eV=-9353.910461667727 dipole_eA="0.2108043128 -0.0766726978 0.0127282741" polarizability_eA2V="0.5783782899 -0.0221667777 0.0088005581 0.4851612401 0.0288115644 0.5923069023" Properties=species:S:1:pos:R:3:forces:R:3
  O       3.648701      0.526759      6.149254 -0.0003358101 -0.0004245557 0.0000301742
  C       3.053277     -0.183049      5.379913 0.0005959406 0.0005225968 0.0002082624
  H       2.863995     -1.244685      5.593865 -0.0001910812 0.0000446883 0.0000396485
  H       2.688179      0.188598      4.411844 -0.0000551065 0.0001397107 -0.0003792090
  O       0.581220      0.026476      6.192564 0.0001690783 0.0004831296 0.0006833883
  C       0.637993      0.904009      7.014114 0.0011307059 -0.0003680526 -0.0013201907
  H       1.555271      1.492019      7.163646 -0.0002823254 -0.0002429623 -0.0000339594
  H      -0.225127      1.160156      7.642997 -0.0011686250 -0.0002140685 0.0007354787
  O       1.679629      0.104599      9.472508 0.0004680843 -0.0001428895 -0.0001567512
  C       2.825699     -0.246782      9.369017 -0.0006597466 -0.0001098298 0.0007454168
  H       3.382127     -0.137180      8.426067 0.0002929566 0.0001108961 -0.0002484398
  H       3.361360     -0.691826     10.223872 0.0000359293 0.0002013366 -0.0003038187
12
name="02b-formaldehyde" energy_eV=-9353.916527975371 dipole_eA="-0.1619448406 -0.0959587686 0.1893473844" polarizability_eA2V="0.5469203457 -0.0293759216 -0.0389325276 0.5322673430 -0.0378543161 0.5630122988" Properties=species:S:1:pos:R:3:forces:R:3
  O       9.759808     14.920151      1.810836 0.0008689069 -0.0010056457 0.0002930384
  C       8.687381     15.170961      2.290797 -0.0017099659 0.0010388766 -0.0005586382
  H       8.248505     14.542544      3.079852 0.0002982246 -0.0002694917 0.0002762484
  H       8.096741     16.037735      1.958986 -0.0001435369 -0.0001890210 0.0000355980
  O       9.410274     16.141911      4.970365 -0.0002162109 -0.0012155242 0.0001002670
  C       9.166795     15.267307      5.758813 -0.0010071020 0.0012165752 -0.0002010290
  H       8.220650     14.706616      5.736373 0.0005197997 -0.0002797979 -0.0004881138
  H       9.873317     14.990741      6.555828 0.0009111559 0.0000871735 0.0008062129
  O       9.982284     13.061077      4.445067 -0.0005515242 0.0003677605 -0.0004286523
  C      10.881402     13.453037      3.745422 0.0006324143 -0.0022361283 -0.0001875091
  H      11.310549     12.824259      2.953443 0.0001269745 0.0012840528 0.0000342668
  H      11.319648     14.452678      3.874559 0.0002708642 0.0012011705 0.0003183110
12
name="02c-formaldehyde" energy_eV=-9353.916647453791 dipole_eA="-0.0617133422 0.1990497385 -0.1702084010" polarizability_eA2V="0.4962785635 0.0230332002 0.0308514543 0.5757471104 -0.0252424373 0.5700630914" Properties=species:S:1:pos:R:3:forces:R:3
  O      10.981185      7.472079      3.854220 -0.0003635997 -0.0002949709 -0.0000698076
  C      10.970408      8.656201      3.645232 -0.0002089594 -0.0009403384 -0.0004394512
  H      11.895147      9.252552      3.635250 0.0004146866 0.0000065369 0.0002828603
  H      10.039807      9.204960      3.438196 -0.0001092383 0.0004573484 -0.0001042917
  O      10.486857      9.661028      6.093941 0.0008049977 -0.0003184277 0.0008784127
  C      10.962490      8.844357      6.841128 -0.0011424242 0.0015101055 -0.0007549924
  H      11.611163      8.036024      6.475205 -0.0000527020 -0.0000970312 -0.0000319538
  H      10.776804      8.877231      7.923336 0.0004858769 -0.0002566666 -0.0000328274
  O       9.368365      6.693983      6.750365 0.0007391417 -0.0000930672 -0.0001857139
  C       8.787516      6.869371      5.713465 -0.0002476026 0.0002918682 -0.0005477157
  H       8.336497      6.033963      5.157592 -0.0005753115 0.0001433829 0.0005659834
  H       8.678208      7.873406      5.277289 0.0002551350 -0.0004087403 0.0004394970
18
name="03a-methanol_ethyne" energy_eV=-9453.611249878541 dipole_eA="0.6331620336 0.0429342749 -0.2115604456" polarizability_eA2V="0.6767847724 -0.0111181457 0.0082099822 0.7081775269 -0.0340003260 0.6050079790" Properties=species:S:1:pos:R:3:forces:R:3
  O       3.318465     11.797504     12.782029 -0.0002447483 0.0003548276 -0.0005952019
  H       4.181675     12.226873     12.687832 0.0003325709 -0.0004829139 0.0008526697
  C       3.399173     10.854020     13.840357 -0.0000159779 0.0002242170 -0.0004329654
  H       4.096882     10.048971     13.604014 0.0000310031 -0.0000849879 -0.0000251754
  H       2.409315     10.426126     13.973202 0.0000576742 -0.0001032760 -0.0000191592
  H       3.704056     11.324026     14.777103 0.0000302437 -0.0001433258 -0.0000030577
  O       1.933762     14.135872     13.513531 -0.0001349488 0.0000635434 -0.0000582067
  H       2.308657     13.278281     13.259248 0.0001998230 -0.0003449757 0.0002327880
  C       1.359551     14.720955     12.362764 -0.0000586376 0.0002100318 -0.0000556101
  H       2.100350     14.892995     11.575748 -0.0000341788 -0.0000186039 0.0000467493
  H       0.941304     15.682332     12.652473 -0.0000104004 -0.0000452787 0.0001126563
  H       0.555391     14.108119     11.948281 0.0000181318 -0.0000573708 0.0000256561
  O       5.637825     13.360736     12.775236 -0.0000563304 0.0007584599 -0.0003778450
  H       6.468497     13.311980     12.302365 -0.0000274225 -0.0001412359 0.0000283069
  C       5.303559     14.732110     13.010791 0.0000461847 -0.0005076831 0.0000145668
  H       6.012258     15.193071     13.698604 -0.0000882713 0.0001193987 0.0001308473
  H       4.311674     14.743850     13.452414 -0.0000031144 0.0001036965 0.0000773643
  H       5.280826     15.297767     12.079149 -0.0000416006 0.0000954774 0.0000456184
16
name="03b-methanol_ethyne" energy_eV=-8408.149222883694 dipole_eA="0.4971694918 0.0019665373 0.1139535540" polarizability_eA2V="0.6861284008 0.0232250862 -0.0475547284 0.6194575643 -0.0504705590 0.7397538691" Properties=species:S:1:pos:R:3:forces:R:3
  O       4.565148     11.393910     12.650562 0.0001883064 -0.0000925259 -0.0004309976
  H       5.339581     11.800743     13.053875 -0.0004747531 -0.0001022917 0.0012418656
  C       3.646402     11.070200     13.679120 0.0002863695 0.0004822119 -0.0005405562
  H       4.076447     10.386110     14.414330 -0.0000699643 -0.0000905971 0.0001156531
  H       2.793819     10.583211     13.212361 -0.0000627823 -0.0000547516 0.0000684494
  H       3.289620     11.959256     14.204833 -0.0000579478 -0.0001137258 0.0001036117
  O       7.107150     12.230869     13.784794 0.0004804216 -0.0003057418 -0.0008658263
  H       7.560333     12.854853     13.216241 -0.0002399448 0.0002665134 0.0001674375
  C       7.762883     10.961980     13.702611 0.0002931775 -0.0001318212 0.0001068822
  H       7.675703     10.537540     12.703337 -0.0001391942 -0.0000358642 -0.0000027492
  H       7.260311     10.305892     14.406631 -0.0001536237 0.0001676041 0.0000256616
  H       8.812380     11.042246     13.983184 -0.0000376851 0.0000551602 0.0000137406
  C       5.433238     11.031568     17.595606 -0.0001759000 0.0000416091 0.0000043358
  H       5.068119     10.482161     18.427816 0.0001583735 -0.0000055494 0.0000063186
  C       5.841572     11.655038     16.660045 -0.0000823242 -0.0000829184 -0.0000462606
  H       6.208955     12.198219     15.819594 0.0000874711 0.0000026881 0.0000324341
16
name="03c-methanol_ethyne" energy_eV=-8408.295033000719 dipole_eA="0.1804498946 -0.2170569109 0.0474789372" polarizability_eA2V="0.6217846764 -0.0644701736 0.0209998605 0.7017874970 -0.0739686778 0.7403078023" Properties=species:S:1:pos:R:3:forces:R:3
  O       3.394066      4.649315     13.972503 0.0000495430 0.0002576041 0.0000306793
  H       3.216209      4.659749     14.918776 -0.0000492267 0.0000160824 -0.0000110545
  C       3.091254      3.344760     13.486402 -0.0000029568 -0.0010855748 -0.0000095494
  H       3.766385      2.598853     13.906857 0.0001310876 0.0002844720 0.0000304505
  H       3.223103      3.366087     12.408648 -0.0001007289 0.0001872768 -0.0000275622
  H       2.061290      3.064917     13.710604 -0.0001038041 0.0002931008 -0.0000935585
  O       1.111887      6.240711     13.461047 0.0003912602 0.0000503375 -0.0000645913
  H       1.973692      5.798867     13.474471 -0.0000767102 -0.0001348989 0.0001027427
  C       1.193738      7.398893     12.650857 -0.0002099668 0.0000624722 -0.0000926833
  H       1.938382      8.105581     13.023934 -0.0000415426 -0.0000266759 0.0001330868
  H       0.220698      7.883096     12.670528 0.0000402111 0.0001250862 -0.0000427643
  H       1.433447      7.152318     11.614185 -0.0000245773 -0.0000647382 0.0000080493
  C       1.898059      4.347602     17.135728 -0.0001368634 -0.0002095275 -0.0001830098
  H       2.382197      3.774647     17.887991 0.0000691435 0.0000968086 0.0000714929
  C       1.330587      4.998337     16.305842 0.0000881849 0.0001443451 0.0000969206
  H       0.861664      5.575242     15.536849 -0.0000230531 0.0000038295 0.0000513519
18
name="04a-acetonitrile" energy_eV=-10845.403180951143 dipole_eA="0.7308932480 -0.0918897446 0.3772873670" polarizability_eA2V="0.8948842507 -0.0647036156 0.1101451693 0.8039270955 -0.0522952644 0.9583461683" Properties=species:S:1:pos:R:3:forces:R:3
  C       4.066886     12.288690      2.084970 0.0003770279 0.0015102047 -0.0000294362
  C       4.363009     11.458125      3.244118 -0.0007469705 -0.0014131828 0.0007736088
  N       4.604215     10.821128      4.167951 -0.0004010970 -0.0003027832 -0.0005252003
  H       4.633048     11.938788      1.225932 0.0002925273 -0.0004460634 0.0002231922
  H       4.342114     13.315447      2.313614 -0.0006668049 -0.0004194282 0.0001521882
  H       3.002069     12.249075      1.875565 0.0006206448 0.0001705515 -0.0000742756
  C       2.603662     13.038596      5.962024 0.0022929830 -0.0012121404 0.0035908558
  C       1.873803     13.010824      4.701170 0.0004588852 0.0001861998 0.0010266715
  N       1.311107     12.984705      3.701741 -0.0010429626 0.0001079245 -0.0013481242
  H       3.346405     13.831010      5.929014 -0.0016044777 0.0028072078 -0.0021173672
  H       1.915678     13.212043      6.785046 -0.0006987734 -0.0006509195 -0.0004845867
  H       3.110891     12.087088      6.098923 -0.0000185605 0.0003872613 -0.0009220441
  C       7.075460     12.492052      5.632654 -0.0009775495 0.0014654479 0.0028713300
  C       6.243281     13.522969      5.025843 0.0005682188 -0.0004375733 -0.0017646462
  N       5.574344     14.323059      4.547225 0.0004848793 -0.0014894159 0.0014414339
  H       7.291633     12.751752      6.665527 0.0002432952 0.0000714930 -0.0001165880
  H       6.543727     11.544828      5.591065 0.0006459339 0.0002062328 -0.0024982769
  H       8.010077     12.403562      5.085181 0.0001728013 -0.0005410157 -0.0001987344
18
name="04b-acetonitrile" energy_eV=-10845.403191883344 dipole_eA="-0.7269335541 -0.3682011165 -0.1225647542" polarizability_eA2V="0.8887933362 0.1286970573 0.0133023910 0.9534859683 0.0587367457 0.8138817119" Properties=species:S:1:pos:R:3:forces:R:3
  C       6.584532      3.233141      9.268688 -0.0008391230 -0.0000511464 -0.0010866869
  C       6.320833      1.803208      9.185526 -0.0005437066 -0.0012681486 0.0002093224
  N       6.102682      0.679523      9.100754 0.0001524020 0.0005933597 0.0000104644
  H       6.248685      3.702454      8.347192 0.0004997295 0.0003779158 0.0013166248
  H       7.652405      3.397920      9.376566 0.0001064685 0.0004615032 -0.0000987545
  H       6.050159      3.658059     10.114156 0.0002486033 0.0001839596 -0.0001329994
  C       3.493728      0.553782      7.039269 0.0000689412 0.0004974187 -0.0002894597
  C       4.270644      1.698489      6.581531 0.0000668803 0.0001521625 -0.0007713134
  N       4.896341      2.593609      6.229626 -0.0003505946 -0.0006452999 0.0004156164
  H       3.277005     -0.104520      6.202185 0.0006213027 -0.0001422481 0.0001091421
  H       4.068970      0.019771      7.791408 -0.0001417108 -0.0004583840 -0.0000616231
  H       2.558110      0.894036      7.475086 0.0000910153 -0.0001315246 0.0005537449
  C       7.885065      0.776895      6.085307 -0.0003515383 -0.0005283278 -0.0034523062
  C       8.635370      1.754489      6.862807 0.0004142825 -0.0003794839 0.0019696996
  N       9.215753      2.525279      7.483419 -0.0001931264 0.0006818971 -0.0006383934
  H       7.131406      1.290118      5.494558 -0.0004071069 0.0004575752 0.0006455590
  H       8.557621      0.229110      5.430782 0.0000082961 0.0002954566 0.0002259632
  H       7.390417      0.088379      6.765679 0.0005489858 -0.0000966848 0.0010754010
18
name="04c-acetonitrile" energy_eV=-10845.373456259274 dipole_eA="0.0226278356 -0.7257268173 -0.0945737605" polarizability_eA2V="0.6921936961 -0.0132018634 0.0128441851 0.9587070718 -0.0545371742 1.0719328479" Properties=species:S:1:pos:R:3:forces:R:3
  N       0.008087      5.617846      8.582849 0.0004462267 0.0000688515 -0.0000763593
  C       0.122177      4.987581     11.107399 0.0001149092 -0.0001003213 0.0002543260
  C       0.058335      5.343357      9.695717 -0.0001356251 -0.0001150891 -0.0000618035
  H       0.167164      3.906841     11.212249 -0.0001146447 -0.0000685766 -0.0002001720
  H       0.999782      5.442625     11.556319 0.0000366711 -0.0001086143 -0.0000546737
  H      -0.753557      5.375543     11.618651 0.0000452691 0.0001075588 -0.0000255063
  N      -0.089088      8.428541      5.844360 -0.0001151399 0.0001172793 -0.0001354397
  C      -0.004061      5.868659      5.371612 -0.0007212186 0.0003740154 0.0000191616
  C      -0.051257      7.300349      5.639525 0.0002358441 -0.0001132279 0.0002462858
  H       0.934077      5.462097      5.737139 -0.0001399296 -0.0001449250 0.0000895268
  H      -0.813211      5.375608      5.900903 -0.0002080758 0.0001145870 -0.0002118319
  H      -0.092522      5.690795      4.303165 0.0004734804 -0.0001141424 -0.0000275200
  N       0.026602      8.112721     11.521894 0.0000792857 0.0000098069 -0.0000903849
  C      -0.106248      9.111037      9.120067 0.0002528411 -0.0000305907 0.0000236302
  C      -0.032215      8.562725     10.467568 -0.0002954546 -0.0000279371 0.0001401335
  H      -0.109794      8.302251      8.395975 -0.0000208521 -0.0000093815 0.0000764765
  H      -1.015635      9.693794      9.003126 0.0000447735 0.0000530033 0.0000720976
  H       0.751361      9.749703      8.928309 0.0000216396 -0.0000122955 -0.0000379456
21
name="05a-nitromethane" energy_eV=-20015.218543433672 dipole_eA="0.3263211425 -0.0847419088 0.5960373592" polarizability_eA2V="0.9897779066 0.0691174472 -0.0681403463 0.8881505426 0.0468403120 1.0571017900" Properties=species:S:1:pos:R:3:forces:R:3
  C       6.132143     12.862292     12.380476 -0.0021772439 -0.0042107012 -0.0005323912
  N       5.681677     12.064512     11.208875 0.0047320540 0.0027738055 -0.0002342635
  O       6.493274     11.834216     10.337384 -0.0017443278 -0.0002967235 -0.0008368557
  O       4.533262     11.665575     11.209702 -0.0021634159 0.0001053896 0.0004841723
  H       5.284669     13.431301     12.739100 0.0008496223 0.0009341871 0.0004062426
  H       6.440088     12.143371     13.133131 -0.0000911988 0.0010555155 0.0010667841
  H       6.959872     13.480861     12.061215 0.0001373431 0.0001192859 -0.0001406118
  C       3.393100      9.160461     13.638947 -0.0065599847 -0.0072918481 0.0003929848
  N       4.658120      9.929884     13.769393 -0.0009588513 -0.0004861795 0.0015137327
  O       5.609135      9.551197     13.111638 0.0016704983 0.0017629470 -0.0018241241
  O       4.675612     10.888991     14.511571 0.0001692018 0.0001851341 -0.0006069616
  H       2.660340      9.609783     14.294103 0.0002103177 -0.0006131677 0.0007774302
  H       3.100544      9.203551     12.594804 0.0095314389 0.0117144411 -0.0023716460
  H       3.617748      8.136030     13.914777 0.0007065611 0.0000575230 -0.0001719171
  C       4.922608      9.010474      9.605753 0.0062990382 -0.0005016586 -0.0044617467
  N       3.477857      9.346876      9.480174 -0.0008171718 -0.0002925968 0.0037144392
  O       3.116024      9.888449      8.461837 0.0000398606 0.0012895886 -0.0006633274
  O       2.740650      9.023020     10.394454 -0.0023491968 -0.0043885538 -0.0010191561
  H       5.485809      9.797611      9.124514 -0.0010367564 0.0009311342 0.0006411727
  H       5.159674      8.923475     10.657574 -0.0076136438 -0.0024058471 0.0025083427
  H       5.057684      8.063280      9.092037 0.0011658552 -0.0004416751 0.0013577013
21
name="05b-nitromethane" energy_eV=-20015.220539383656 dipole_eA="-0.1602612268 -0.4442037759 0.4061048493" polarizability_eA2V="0.8165263167 -0.0159494319 0.0190757710 1.0130319849 0.0194035600 1.0908093067" Properties=species:S:1:pos:R:3:forces:R:3
  C       3.743418      2.891664      5.291792 0.0023129690 0.0029733056 0.0009467988
  N       4.479475      4.143555      5.620873 -0.0011726083 -0.0011788483 -0.0023177178
  O       5.296313      4.540299      4.821780 -0.0014624182 0.0002956956 -0.0001775869
  O       4.191126      4.707209      6.660977 0.0020237341 -0.0007242870 0.0010782185
  H       3.390909      2.458548      6.218492 -0.0003258485 -0.0010127002 -0.0002852302
  H       2.914045      3.185648      4.655541 -0.0000343085 -0.0000607766 -0.0001074864
  H       4.424838      2.238930      4.764164 -0.0003052263 -0.0009971780 -0.0001274081
  C       4.142770      3.351945      9.495802 -0.0003812425 0.0004036326 0.0012425539
  N       4.075793      1.868432      9.443082 0.0001269266 0.0010836252 0.0004961577
  O       3.422191      1.359215      8.552008 0.0003661084 0.0001781309 -0.0009517387
  O       4.708735      1.245623     10.269979 -0.0006241803 0.0005151552 0.0003292277
  H       4.266271      3.638767     10.531607 -0.0000467112 0.0003398855 -0.0001379990
  H       5.008913      3.632182      8.905357 0.0000727530 0.0004049845 -0.0003728514
  H       3.247330      3.748268      9.038504 -0.0007528710 -0.0002499784 0.0003839442
  C       6.273266     -0.324467      7.910140 0.0011082356 -0.0005918298 0.0003901379
  N       6.040774      0.698460      6.855322 0.0052092045 0.0009083054 0.0002898207
  O       6.091918      1.868117      7.186105 -0.0030026013 -0.0031808353 -0.0002008084
  O       5.784574      0.308234      5.736717 -0.0022199924 0.0014885647 0.0000181271
  H       6.604873     -1.231731      7.423895 -0.0003112965 0.0000052551 -0.0001433863
  H       6.996143      0.076995      8.607895 -0.0002167442 -0.0000797316 0.0002113490
  H       5.318943     -0.467099      8.407932 -0.0003638830 -0.0005203755 -0.0005641229
21
name="05c-nitromethane" energy_eV=-20015.185591613958 dipole_eA="-0.3539314032 -0.3839773920 0.1108253616" polarizability_eA2V="0.8841292587 0.0166094910 -0.0553991148 1.0048554567 0.1043441786 1.0384018284" Properties=species:S:1:pos:R:3:forces:R:3
  C       0.975378      5.121516     11.634313 -0.0020893802 0.0013042399 0.0018002797
  N       1.895526      5.610085     10.572634 0.0003342172 -0.0000905627 -0.0006267090
  O       2.755628      6.403934     10.891221 -0.0002408690 0.0004082907 0.0001460959
  O       1.749539      5.153723      9.456522 0.0004359838 -0.0000801306 -0.0000490866
  H       0.004623      4.963053     11.182790 0.0001220953 -0.0010656844 -0.0009180379
  H       1.394649      4.180873     11.977147 0.0002278151 0.0003115994 -0.0002687066
  H       0.960257      5.855676     12.428335 0.0015440462 -0.0008934601 0.0002870837
  C       4.725185      3.972811      9.358996 -0.0029405693 0.0001230947 -0.0009893431
  N       3.911347      2.911409     10.011965 0.0003603533 0.0009449926 -0.0019932988
  O       3.752960      1.872976      9.402768 0.0001210690 -0.0000093924 0.0011568686
  O       3.468612      3.128754     11.121904 -0.0003332089 -0.0012846787 0.0001766740
  H       4.548742      4.902604      9.881435 0.0007183632 -0.0002534675 0.0001560819
  H       5.759171      3.649556      9.432676 0.0016201688 0.0001698479 0.0010229904
  H       4.425838      4.014557      8.320122 -0.0000829047 -0.0002212922 0.0003250436
  C       5.740764     -0.110505      7.809241 0.0005457273 0.0002216471 0.0001674080
  N       6.329591      1.245548      7.972271 0.0004164206 0.0011636571 -0.0016244981
  O       6.900806      1.483181      9.018161 0.0007680261 -0.0009716476 0.0015500638
  O       6.176624      2.039926      7.069223 -0.0001206832 0.0002729049 -0.0005165802
  H       5.656536     -0.312464      6.749986 -0.0009504795 -0.0004645729 0.0000194283
  H       6.380260     -0.813523      8.326816 -0.0000874840 0.0005642765 0.0004949525
  H       4.763075     -0.064981      8.277510 -0.0003687072 -0.0001496613 -0.0003167082
24
name="06a-acetic_acid" energy_eV=-18714.893373614552 dipole_eA="0.4214010208 0.2319531176 -0.3002526211" polarizability_eA2V="1.1406323071 0.0426290406 -0.0633265903 0.9321580395 -0.1354397792 1.0388520260" Properties=species:S:1:pos:R:3:forces:R:3
  O       5.394895      3.889152      1.033185 0.0006667870 0.0011947917 0.0006848556
  H       4.714776      4.402159      0.578502 0.0002971962 -0.0003270900 -0.0003967325
  O       3.555513      2.892310      1.781030 0.0021742561 -0.0001188447 0.0006899942
  C       4.764746      2.965734      1.775178 -0.0035713667 -0.0021038027 -0.0016387827
  C       5.707520      2.096108      2.537616 0.0008266003 0.0036532484 0.0013526744
  H       5.150019      1.360853      3.105334 0.0003829744 -0.0002958031 -0.0005742227
  H       6.394139      1.616967      1.842866 -0.0003978454 -0.0009061810 -0.0001175141
  H       6.294110      2.722762      3.205662 0.0007072127 -0.0010036281 0.0000442410
  O       3.961015      3.684471      4.795256 0.0008123163 0.0027966245 0.0011119189
  H       3.064080      3.936471      4.539336 -0.0006849068 -0.0021619992 -0.0004684871
  O       2.809372      2.887016      6.536639 0.0006507667 0.0005970431 0.0006111577
  C       3.859239      3.012348      5.963758 -0.0006061644 0.0006405789 -0.0011090350
  C       5.172378      2.443766      6.402179 -0.0008563549 -0.0011567043 -0.0001836879
  H       5.129735      2.206131      7.458632 0.0005064909 0.0002291816 0.0000621632
  H       5.333252      1.527487      5.835986 0.0001401879 -0.0001388422 0.0009987863
  H       5.985471      3.132353      6.191415 -0.0004653042 0.0007908052 0.0002055254
  O       1.802436      1.595250      3.466800 -0.0002855390 -0.0017992947 -0.0015130653
  H       2.516801      1.923513      2.880686 -0.0010404349 -0.0012793343 -0.0013482489
  O       3.471694      0.404942      4.360083 -0.0011130287 -0.0031803495 -0.0032599327
  C       2.301947      0.718007      4.340011 0.0012893944 0.0056888682 0.0047538624
  C       1.267070      0.205556      5.294531 0.0017670797 0.0005615246 -0.0012340316
  H       1.636111     -0.685261      5.789381 -0.0003025752 0.0001017633 0.0007739364
  H       0.332963      0.006063      4.777463 -0.0000229339 -0.0007790113 0.0000262327
  H       1.090268      0.982260      6.036761 -0.0008748090 -0.0010035444 0.0005283924
24
name="06b-acetic_acid" energy_eV=-18715.055081075297 dipole_eA="0.3836349556 0.3512718734 -0.4437318462" polarizability_eA2V="0.9331790017 0.0142975666 -0.2232669283 1.1991648318 0.0195329919 1.0897125169" Properties=species:S:1:pos:R:3:forces:R:3
  O       1.279521     17.955642      8.156811 -0.0003074036 -0.0000581735 -0.0004152075
  C       0.425359     17.424213      9.031930 -0.0000991979 0.0000634319 -0.0000009140
  O       0.165308     16.244972      9.077897 -0.0000025226 -0.0000122896 0.0000370078
  C      -0.167141     18.461569      9.944162 -0.0000185019 0.0000011810 -0.0000859390
  H       1.643194     17.249809      7.575648 0.0007217211 -0.0001085488 0.0008164821
  H      -0.685440     19.213303      9.352759 0.0000240872 0.0000237116 0.0000194110
  H       0.628933     18.965774     10.487852 -0.0000158350 -0.0000176734 -0.0000120105
  H      -0.854155     17.990719     10.637099 0.0000183203 -0.0000021758 -0.0000157070
  O       5.200196     17.983434      2.333732 -0.0001239749 -0.0000190662 -0.0000074879
  C       4.506252     17.441181      3.344958 0.0000734921 0.0000721275 -0.0001010728
  O       4.379572     16.240222      3.439212 0.0001101645 -0.0000629746 0.0001528466
  C       3.947967     18.465139      4.277315 0.0002880043 0.0000027274 0.0001075297
  H       5.521441     17.256766      1.784531 0.0000323090 0.0000215900 0.0000308915
  H       3.293648     19.133387      3.721218 -0.0000517264 -0.0000803115 0.0001221112
  H       4.762598     19.065863      4.676325 0.0000859890 0.0000334761 -0.0000876711
  H       3.404509     17.977468      5.077047 -0.0003145978 -0.0000177638 -0.0001195619
  O       3.125051     14.524956      5.174957 0.0003532717 -0.0000590557 0.0003568707
  C       2.487968     15.076203      6.194953 -0.0004479998 0.0000761357 -0.0000270968
  O       2.455155     16.283853      6.359553 -0.0000468772 0.0001529386 -0.0004796617
  C       1.845088     14.076592      7.103444 0.0001558972 -0.0000385646 0.0001467464
  H       3.538478     15.221943      4.618937 -0.0002658677 0.0000531380 -0.0002931439
  H       1.278739     13.359415      6.514706 -0.0000502269 0.0000575670 0.0000163758
  H       2.630065     13.525602      7.619676 0.0000040398 -0.0000542556 -0.0000595587
  H       1.210055     14.579635      7.823504 -0.0001225642 -0.0000271704 -0.0001012401
24
name="06c-acetic_acid" energy_eV=-18714.928691117548 dipole_eA="-0.0417407665 -0.1451805711 -0.1222566133" polarizability_eA2V="1.0300732633 -0.0694088135 0.0400675315 1.0958243039 -0.0811251677 1.0356575386" Properties=species:S:1:pos:R:3:forces:R:3
  O       3.825225     17.625113      2.542621 -0.0000850719 -0.0000477104 -0.0000625402
  C       4.374094     17.143261      3.655304 0.0000173926 -0.0000209265 0.0000639731
  O       4.743776     15.980961      3.713179 -0.0002621112 -0.0000559366 -0.0002170963
  C       4.465256     18.142593      4.753350 -0.0002640759 -0.0002259791 0.0000920892
  H       3.760874     16.896966      1.911335 0.0000346774 -0.0000835948 -0.0000295783
  H       4.814419     19.095440      4.365191 -0.0000628052 0.0000268488 -0.0000233681
  H       5.108299     17.769044      5.541900 0.0001805045 0.0001022485 -0.0001862491
  H       3.455624     18.278139      5.138230 -0.0000449274 0.0000499389 -0.0000808670
  O       2.927329     14.374012      5.268526 -0.0002379075 -0.0003018776 -0.0004784868
  C       1.884628     15.193821      5.454402 0.0000011080 0.0000504744 0.0001135076
  O       1.823180     16.296657      4.966510 -0.0000157862 -0.0000854016 -0.0001098697
  C       0.832722     14.577998      6.328802 0.0000299352 -0.0000721362 -0.0000112247